     512
 Properties=species:S:1:pos:R:3:velocities:R:3:forces:R:3:local_energy:R:1:fix_atoms:S:3 Lattice="23.0331406299       0.0000000000    0.0000000000    0.0000000000   23.0331406299    0.0000000000    0.0000000000    0.0000000000   23.0331406299" temperature=315.88641005 pressure=530.02778159 time_step=0.5000 time=10000.0000 energy=-2629.164385 virial="-19.40767684          3.62155813     -1.74657435      3.62155813     -6.30022607      6.51516760     -1.74657435      6.51516760     -3.89441669" stress="0.00158823           -0.00029637      0.00014293     -0.00029637      0.00051558     -0.00053317      0.00014293     -0.00053317      0.00031870" volume=12219.669999 step=20000
 C              4.30856168       5.68107884       2.30983435       0.00134473      -0.00274579      -0.00010452      -0.30024541      -0.54112190      -0.55144181      -9.76408436 F F F
 C             17.35757983      13.32427755       7.81926608       0.00048306       0.00814167      -0.00703335      -0.77449668      -0.10048266       0.66411552      -9.13202681 F F F
 C             10.56310309      18.82079647       1.32065414       0.00490758      -0.00099794      -0.00711220      -0.82153811       1.67455510      -2.18920230      -9.36050018 F F F
 C              9.54851670      18.52702470      21.25623485      -0.00082416       0.00263565      -0.00167306      -0.49060538       2.26270226       0.56986332      -6.44554477 F F F
 C             20.61838940       8.00372446       4.37306040       0.00003318       0.00631504      -0.01094539       0.18123270      -0.62772610       0.36756225      -9.48550413 F F F
 C              5.88459220      16.80695963      10.87791600      -0.00543050       0.00504951      -0.00087834       1.01229165       0.02436454       1.25879396      -9.74015315 F F F
 C              1.65069688      10.89395369       9.58061210       0.00408803       0.00311571      -0.00364845      -0.33202034      -1.15635341      -0.33159551      -9.37461385 F F F
 C              4.61242841       4.82827021       7.89160144      -0.00288707       0.00437938       0.00621774      -0.29317684      -0.23980842      -1.88371983      -9.91381717 F F F
 C             11.22390403      19.25256518      12.02242344      -0.00491773       0.00753581       0.00080209      -2.29657131      -0.67258385       1.21900375      -9.74313891 F F F
 C              0.25966496      13.41562074       3.15407912       0.00201795       0.00410457      -0.00096266      -0.06722522      -0.36274011       1.14349628     -10.27750375 F F F
 C              9.54415809      19.34668944      19.96601753       0.01647121      -0.00832394       0.00477577       2.20182446      -3.10090471      -0.10946544      -9.86852792 F F F
 C              2.67834630      20.46621456       4.26135318      -0.00253911      -0.00677152       0.00432739      -0.14589359       1.24495862       1.06451256      -6.83963223 F F F
 C             10.69443911      11.51640366      14.65075535       0.00080904      -0.00343036       0.00303450      -0.39343100      -0.30737404      -0.83736389      -8.30326729 F F F
 C              2.13236609      19.48193364       1.62277819      -0.00093580      -0.00310822      -0.00064768       2.44697827       0.20750447       2.34617400      -8.30777691 F F F
 C             13.10020492      16.43126813      15.02716284       0.00186251       0.00395413      -0.00914569       0.34416283       0.83837167       0.37197271      -7.01556047 F F F
 C             20.18795113      20.47482764       0.54892419      -0.00213778      -0.00704486      -0.00233375       1.77858890       0.04942775      -0.19453427      -9.01504138 F F F
 C              1.35783432      12.48758978      19.63062304      -0.00013321      -0.00435166       0.00107947       1.06883665      -1.05129159       0.87023287      -9.72503474 F F F
 C             14.38494603      12.73041411       5.73138801      -0.00253878      -0.00851653       0.00698150      -0.89141031       0.28582374      -0.45031558      -8.96826411 F F F
 C              9.12689661      19.25092997      22.31384174       0.00345571       0.00594969      -0.00450849      -0.48846437       0.54125102      -1.06089084      -5.70663404 F F F
 C              2.14246549      12.16381320      18.33928598      -0.00007668      -0.00518668       0.00031747       0.26232468       0.28994724      -0.20524584      -7.56882136 F F F
 C              4.44515172      13.66536498      20.79326496       0.00110107       0.00527461       0.00375030      -0.50310852       0.16552021       0.11139549      -8.25303305 F F F
 C             17.86836176       2.68511713       5.81675650      -0.00458346       0.00557497      -0.00355591       0.38497570      -0.51487742      -1.07916003      -9.46134367 F F F
 C             10.21905173      17.98187706      14.40527408       0.00159129      -0.00617528       0.00094910      -0.41190678       1.17680693       0.13126351      -6.82009179 F F F
 C              7.54842612      22.84868205      10.24443324       0.01446397       0.00656480       0.00175236       1.34345966      -0.60457162      -0.35931102      -8.11993484 F F F
 C             11.45791961       0.19381592      19.04939943      -0.00767053       0.00136444       0.00173130       0.09191516      -0.59950325       0.78344180      -9.68513993 F F F
 C              4.09088963      18.00094074       1.89561531       0.00303681      -0.00029926      -0.00496298       1.02175441      -0.77597685       1.15136316      -8.25447180 F F F
 C             14.04365326      17.46351966      17.00977223      -0.00201557       0.00141415       0.00108432       1.82991190       1.61289431       2.43745315      -7.55905192 F F F
 C             12.99123419      21.56255806       7.44622796      -0.00343033       0.00703411      -0.00704004       0.05021976      -0.82312029       0.09675508      -9.98678918 F F F
 C             11.13660002      13.92680501      15.40426107      -0.00400440      -0.00853891       0.00246795       0.70892590       1.08283541      -0.03482396      -8.18296315 F F F
 C             15.60729993      11.39104426       2.96414969       0.00023096      -0.00938439       0.00750679      -0.94748403      -0.93527378      -0.04846600      -9.37903219 F F F
 C              3.07030790       8.19706328      20.44135206      -0.00715440       0.00098118      -0.00077436      -0.19053818      -0.25423142      -1.10883151      -9.09620087 F F F
 C             20.68293011      20.07898424      22.11433312       0.00178591       0.00233738      -0.00337903      -0.11685634       0.06255178       1.67279104      -8.33934634 F F F
 C              1.31256223      11.80502999       8.38506723      -0.00002148      -0.00118510      -0.00045304      -0.13044186      -1.47373196      -0.83845538      -9.55929107 F F F
 C             18.90774260       7.26462159      10.95975694       0.00349459      -0.00071264       0.00296264      -0.41584525      -0.28692908      -0.39111605      -9.33545230 F F F
 C              2.52801810       2.18331959      13.76811676      -0.00180613      -0.00179027      -0.00282788      -1.38037008      -1.69462411      -1.76216380      -6.95613352 F F F
 C              8.43853344       8.45272174       2.14272183       0.00171235       0.00166756       0.00816539      -1.00298848       0.08096419       0.07805452     -10.04393474 F F F
 C             10.07544765      17.32551973      21.45055132       0.00088950       0.00747818       0.00953548      -0.74529090       0.34072387       0.46714205      -7.44356392 F F F
 C             13.94606719       9.65519378      20.88663377       0.00273187      -0.00886795      -0.00035070      -0.56860455      -0.08952717       0.95016522     -10.14858846 F F F
 C             17.89140866      17.78253086       1.19300993      -0.00075910       0.00191614      -0.00460234      -0.62444142      -1.24278666       0.68642679      -8.93780238 F F F
 C              5.79722128      21.36485023       9.62469391       0.00449859      -0.00699206       0.00529668       1.11908664      -0.87308675       1.41178032      -7.45285827 F F F
 C              3.05953804      21.25682325       5.45599782       0.01207128       0.00078158      -0.00302333       1.66769091      -0.46759884       0.26816095      -9.56888468 F F F
 C              2.87747953       2.78164256      14.83441835       0.00186850       0.00058718       0.00600863      -0.27029721       0.69289130       2.89794938      -7.19974320 F F F
 C             10.41261927       6.63368270      18.28234302       0.00004444       0.00342565      -0.00812781       0.23835991      -1.23946184       0.27077461      -6.51579654 F F F
 C             15.93776203       4.42323802      19.33972232       0.00073279      -0.00826312       0.00036305       0.59613545       1.31772097      -0.70658896      -9.22209247 F F F
 C              6.34672413       4.68895398      18.52260286      -0.00569914      -0.00214618      -0.00406616      -1.82927657      -1.26442017       5.25309753      -7.73705348 F F F
 C             17.01022383      10.57394923       4.85260674      -0.00209285       0.00104701       0.00393030      -0.22286395       0.38861512      -1.26364648      -9.45244544 F F F
 C             10.25789146      13.01013450      14.63724286       0.00195323      -0.01507014       0.00804035      -1.24269945      -0.67344906      -2.39604079      -8.05518778 F F F
 C              2.02043308      12.62073684      20.93925219       0.00044555      -0.00609129       0.00136934       0.94835061      -1.25160398      -1.00422557      -6.42482197 F F F
 C             20.80291703       9.04467638       5.50862982       0.00141642       0.00699456       0.00901812      -0.38236723      -2.19210961       0.39795538      -9.33268832 F F F
 C             13.51225431       6.44199438      10.13781613       0.00614169       0.00267130       0.00097194       1.46834154       0.22826472      -0.45518977      -8.48283820 F F F
 C             12.40181357       2.10705458       2.39522665       0.00464462      -0.00490621       0.00402172       0.38910040      -0.57775299      -0.22440621      -9.91981997 F F F
 C              2.51436587       7.62516796      21.61278331       0.00407957       0.00516769       0.00341430       1.13477243      -2.26690321      -0.22472043      -5.95419739 F F F
 C              3.03699741      12.88075055      16.07509114      -0.00768623      -0.00286487      -0.00009829       0.02661343      -0.93329985       0.58636150      -8.95598878 F F F
 C              9.39210276       5.63864745      18.16753902      -0.00723876      -0.00059680      -0.00043152       0.98817974      -0.07817431       0.67958970      -7.40977901 F F F
 C             10.57049158      16.54729346      20.36540344       0.01086574      -0.00139812       0.00689774       0.27258627      -0.40895386      -2.97826307      -9.80835672 F F F
 C             14.50376790      15.07638862      13.62974339      -0.00687997       0.00706965       0.00543812      -1.36892056      -0.29749677      -0.99288384      -8.35403152 F F F
 C             22.04182063      20.75341763      21.75752840       0.00111358       0.00192712       0.00476088      -0.88184706      -1.84331615      -0.91183028      -8.41516187 F F F
 C              4.55062367       0.02154031      21.74800939      -0.00099058       0.00152897      -0.00370562      -0.75456143      -1.17306601      -0.81761003      -9.67367025 F F F
 C             14.41192089      11.28505792       5.29637143       0.00219303      -0.00248266       0.00063929      -0.09368695      -0.49926056      -0.94236686      -7.45578784 F F F
 C              8.14838677       3.78651957      17.19680074      -0.00187329      -0.00047370       0.00422482      -0.23439871       0.20593054      -0.70864037      -8.31270640 F F F
 C             20.49537623      18.42509421      15.12916073       0.00270762      -0.00092231       0.00026207       0.32424000      -0.70264605       0.86339803      -9.39119964 F F F
 C              9.13438338      12.51193666       9.48303852       0.00761067       0.00130887       0.00078745      -0.75290121      -0.68963214      -1.27517900      -9.31540166 F F F
 C             16.33422575       5.30959653       2.18083358       0.00518116      -0.00161999      -0.00624104      -1.07644624      -1.11334847       0.55726485      -9.18875855 F F F
 C              1.52996504       7.93238588      22.58739307       0.00699484       0.00558476      -0.00046746      -2.19614740      -0.20529667       0.80807891      -9.95031965 F F F
 C              6.31912426      21.62583424      12.12692032      -0.00161439       0.00521627       0.00203587       1.11724326      -0.61221002      -1.05627075      -9.12780404 F F F
 C              1.16553824      20.14184139      11.24448782       0.00031321      -0.00196903       0.01057804      -1.05629958       0.37837746      -2.24833387      -6.56949679 F F F
 C             14.31065076      16.08607349      14.46681155       0.00260613      -0.00495406      -0.00317890       0.79168596       0.68139322       0.30077518      -7.64781513 F F F
 C              2.57296261      10.90220870      18.27944601      -0.00069064       0.00915993      -0.00283513       0.24482963      -0.61522164      -0.65329737      -5.66399936 F F F
 C             13.94125772      21.66743727       8.55301378      -0.00367502       0.00194620       0.00417981       1.09170229      -0.42798394      -0.43200611      -6.67870074 F F F
 C             21.62335491       1.91660682       2.74850832      -0.00210801      -0.00180298       0.00314179      -0.76814143       0.22590400       1.72590316     -10.10472954 F F F
 C              6.84123364      11.19288923       3.54602089       0.00510315       0.00075342      -0.00360253       2.38981852       0.64577574      -1.09050322      -9.49031424 F F F
 C              4.91552326      17.18234520       2.62742350      -0.00447679       0.00061716      -0.01131153      -1.68275018       1.44725073      -2.46668636      -6.80472505 F F F
 C              3.24572390      18.98783751       2.42796570      -0.00246147      -0.00174695      -0.00007315      -0.98187532       1.03243227      -0.66304915      -7.57910668 F F F
 C             17.17411571       5.41343780      19.11411866      -0.00899888      -0.01140257       0.00697781       0.37188110      -0.29051458       0.71432594      -7.72835480 F F F
 C             20.95421867       5.30216966      19.99505180       0.01057744      -0.00508969      -0.00292614       0.98711381      -2.63174546      -0.07484881      -9.15973789 F F F
 C             17.40487833      21.48016156       0.13872032       0.00589738      -0.00358712      -0.00028342      -0.57378619      -0.24607153      -1.14449103      -8.76247587 F F F
 C              4.85187399      16.97260376       4.05402006       0.00035432       0.00313099      -0.00454950      -0.46587123      -0.40118105       0.26680014      -9.99394928 F F F
 C              2.26562701       4.38584402      16.61487259       0.00207731      -0.00132372      -0.00000431      -0.06702674       0.96675002       0.76895444      -9.23315787 F F F
 C              9.51318468       4.45752626      17.18738268      -0.00009225      -0.00380770      -0.00158068       0.52284444       0.30644738       0.12563596      -8.61023674 F F F
 C              0.60115109      20.24286082       9.85749880       0.00000426       0.00030371      -0.00349460       0.77582314      -0.36138890       1.30532751      -9.39655116 F F F
 C              2.17432966       8.56348266      19.19396431       0.00828475       0.00354305       0.00178340       0.66386637       0.81399014      -1.32084220      -9.14517024 F F F
 C              3.55792912      19.71117394       3.62742572      -0.00081486       0.00739173       0.00459380       1.67086375      -0.62296621      -1.72674688      -8.02966351 F F F
 C              2.49957042      13.13796610      17.41162878      -0.00039214      -0.00405310       0.00080036      -0.30389281       0.35984746       1.23538691      -7.70341484 F F F
 C              6.17255049      22.28172035      10.64325872      -0.00486290       0.00017132       0.00020867      -0.29882827      -0.42662571       1.03913401      -7.27522551 F F F
 C              1.32093815       1.41787580      13.39296705       0.00298296       0.00174758       0.00170252      -0.04529084      -0.65077697      -0.70766672     -10.10232985 F F F
 C             20.10551089       8.19263770      10.53306934      -0.00119771      -0.00629197      -0.00675070       0.43536430      -2.46331114      -0.08778564      -8.13670029 F F F
 C             17.07014284      20.81190227       2.31056731      -0.00903283      -0.00016098       0.00484700      -1.49753356       0.17358649       1.46302656      -7.31997077 F F F
 C             11.82471149      18.07756166      12.68550137       0.00540572      -0.00244512       0.00831829       0.27499808      -0.72256224      -0.24020046      -7.55530158 F F F
 C              8.26657306      10.40003481       0.69730209       0.00277526      -0.00274855       0.00016735      -0.29600785      -0.34069518       0.98184937      -8.82328514 F F F
 C             11.07131184       7.40995558      17.31779215       0.00055322       0.00538615       0.00134612       1.50623497       1.39003102       0.78227344      -8.72684415 F F F
 C              5.43092248      14.76563547       7.10008621      -0.00615216      -0.00259787      -0.00097432      -0.61987157      -1.97608192       0.57095035     -10.21108874 F F F
 C             13.48021402      22.77151624      14.49513201      -0.00625416       0.01023726      -0.00795663       0.82903811      -0.74448522      -0.02843494     -10.10896850 F F F
 C             12.61328598       7.07563884      17.07729236      -0.00095241       0.00176203       0.00247693      -1.84461790      -0.35018416      -0.69443358      -8.17230095 F F F
 C             20.25305705      17.87336609       1.69070955       0.00320659       0.00575744      -0.00637471       0.73275734       1.69633040      -2.60436824      -9.83159415 F F F
 C             15.00401413      20.90790856       8.58569446      -0.00350994      -0.00125429       0.00009971       0.17148824      -0.42280122      -0.44159701      -8.25956184 F F F
 C             15.33489233      18.76908394      18.73674483       0.00703259       0.00199487      -0.00631788       0.32735496      -0.96053942      -0.67562529      -9.98972377 F F F
 C             17.69129759       3.40268323       7.13265740      -0.00699751       0.00727946       0.00249408       0.12401760       2.47543464       0.78201905      -9.51672374 F F F
 C              3.16387934      13.21570251      21.51347110      -0.00032309      -0.00959393      -0.00335382       1.09264443       0.86444594      -0.34368382      -8.72473565 F F F
 C             15.41669050       5.82221965       1.06874641      -0.00166374       0.00346703      -0.00227153      -0.27929193       0.08169518      -0.51329144      -9.19300268 F F F
 C              5.41680637      22.61221947      16.36180258      -0.00439121      -0.00192512      -0.00239748       0.28866697      -1.80406196       1.06748039      -9.50303772 F F F
 C             16.82705821       5.24838629      13.53243607       0.00172414       0.00448349      -0.00600981      -2.15791828      -0.12778664       0.09301355      -9.89954746 F F F
 C             16.29442312      15.32380695       6.80552945      -0.00013227      -0.00194946       0.00692221       0.48069684      -0.01422776       0.87083590      -9.52500941 F F F
 C             18.92079050      19.87796476       1.00709146      -0.00124161       0.00201716       0.00173131       0.10125898      -0.59042791       0.57207296      -7.57119561 F F F
 C             18.95620979      18.54485352       1.27227569      -0.00510818       0.00478865      -0.00131911       0.67205610       0.32773872       1.24006451      -5.84181332 F F F
 C             13.04744477      17.34302560      16.15160229      -0.00202454      -0.00370397       0.00249844       0.88249615      -2.66587112      -2.58313510      -8.40598700 F F F
 C             16.46972310      13.78316827       6.64300727       0.00083605      -0.00746299      -0.00586644      -0.55832363      -0.28476992      -0.35431287      -7.23827273 F F F
 C              9.10307845      18.74089150       0.64290246      -0.00222216       0.00524574      -0.00054597       1.00535990      -0.08919516       0.10709915      -8.57993946 F F F
 C              9.71856573      10.53132114      13.89138209       0.00032371      -0.00338799       0.00177439       0.14611595      -0.44119755       2.00987289      -9.33737343 F F F
 C             14.25400401      10.41647541       6.54680558       0.00218586       0.00641105      -0.00278130      -0.19838069      -1.48153223       1.38864813      -9.09769776 F F F
 C              0.22099964      20.42127318      22.59594835       0.00386779       0.00578514      -0.00126809       0.20619088       1.02596300       0.54052862      -8.70815317 F F F
 C             18.52557820       4.81041007      19.76301964      -0.00299445       0.00204822       0.00214906      -1.28734347       1.38462612      -0.70340196      -8.35010955 F F F
 C              8.79732525      20.53226145      22.16322545      -0.00348266       0.00379680       0.00310550       0.75369927      -0.79805738       1.30719148      -8.62306179 F F F
 C             13.27700694       7.33822049      10.98745939      -0.00428182      -0.00100225       0.00545355       0.39345272      -0.42206252      -0.19969990      -6.83975244 F F F
 C              6.57723084      10.17795735       2.40886413      -0.00768527       0.00486639      -0.00555305      -1.68553414       0.48903523      -1.12884481      -9.02480935 F F F
 C             18.32778608      12.60286921      17.27343662      -0.00264283       0.00661190      -0.00932082      -1.34802483      -0.10746984       0.10470186     -10.25216058 F F F
 C             22.17050763      20.74143714       9.71541159       0.00531623      -0.00291021       0.00087124       0.56328764       0.22016444      -0.36548653      -9.62263396 F F F
 C              4.42892458      13.37881124      15.74917759       0.00497034      -0.00216807       0.00337062       0.44801730       3.55700354       0.58954647      -9.45955371 F F F
 C              0.69229034      19.10401862      22.78495664       0.00201029       0.00123611      -0.00223560      -1.08921284      -2.20601180       0.18638177      -7.35023912 F F F
 C              7.13603215       4.96618390      17.50092016       0.00248808      -0.00803051      -0.00232395       1.08530253       0.37302793      -3.51661070      -6.81381980 F F F
 C              5.67545696       8.95825057      13.46722885       0.00094734      -0.00367021      -0.01047249      -0.70376620       0.90118173      -0.20940129      -9.44661411 F F F
 C             19.74052555      15.13072421      12.73870021      -0.00915337       0.00046110       0.00269301      -2.36354626      -0.85584592      -0.49435915     -10.16430202 F F F
 C             11.16608342      17.39912132      13.71237650      -0.00214333      -0.00008722       0.00029032       0.99523591       0.92823803      -0.92416313      -6.68782708 F F F
 C              5.36629672      12.60606186      20.29435665      -0.00009367      -0.00115443       0.00133308       2.39869594      -0.13026140      -1.06777132      -9.54743469 F F F
 C             19.63183622       5.89086878      19.68945570      -0.00297054      -0.00178900      -0.00460152      -1.49565802       0.86293306       0.30475331      -8.22942579 F F F
 C              7.51747459       1.54065603       3.85063667      -0.00332402       0.00671348      -0.00427863      -0.14471473      -1.55748490      -1.20651505      -9.92755818 F F F
 C             10.79037439      15.43655361      15.12964850       0.00703076       0.00546590       0.00409966      -0.92004407      -1.22446330      -0.27073410      -8.37193351 F F F
 C             15.52009146      10.75223909       4.37376758      -0.00175823       0.00189286      -0.00151716       0.74651843      -0.42091141       0.74890493      -7.07622480 F F F
 C              4.19522475       9.00480824      13.17292482      -0.00939712       0.00360906       0.00310786      -1.66721650       0.24890003       0.40308083      -9.28833826 F F F
 C             14.21555680      18.54118340      17.79596881      -0.00241914       0.00021201       0.00015064      -1.88545724       0.90911535      -0.18094809      -6.89698081 F F F
 C              9.40443776       6.82669847       6.91534900      -0.00216362       0.00195139      -0.00319516      -0.42469994       1.02261433       1.18960274     -10.05411930 F F F
 C             11.84249652      16.14677033      14.27403949      -0.00168730      -0.00275695       0.00009369       0.07189776      -0.69690235       0.09312523      -9.22618477 F F F
 C              9.43222448      11.03537964       9.09012295      -0.00939440      -0.00361636       0.00463045       0.37541041      -0.59991171       2.27012419      -8.58890919 F F F
 C             17.47411569      20.38636942       3.67347529      -0.00748031      -0.00079859      -0.01309131       0.70793395      -0.72147464      -0.76655861     -10.08284976 F F F
 C              7.61780943       0.46573108       8.81685245      -0.00401098      -0.00266489       0.00105371       0.02000155      -1.67811999       0.19572581      -9.41573349 F F F
 C              7.70922737       9.66328828       1.65182414       0.00528160       0.00452004      -0.00332251       1.64061652       0.26604510      -0.62818905      -4.97279028 F F F
 C              1.51543861      20.14056945      12.40207631      -0.00394320      -0.00711210       0.00175597       0.00459115       0.22381162      -1.35384106      -5.50874782 F F F
 C             21.23251493      17.67915429      16.32505675      -0.00415621      -0.00722993      -0.00474818      -2.46953328       1.43869754      -0.58113334      -9.31304701 F F F
 C             11.19209935       3.16962008       6.63893817       0.00169330      -0.00107402       0.00097819      -0.37080200       0.87566786      -1.46772822      -9.83056031 F F F
 C             18.13866607      22.79700032      17.52685597      -0.00649846       0.00543274      -0.00281320       0.11663724      -0.04679098      -0.28324223     -10.09473069 F F F
 C             21.43541680       7.48999578      10.98632205       0.00440174       0.00169352       0.00154463       0.16640925       0.33302982      -1.36428071      -8.86290494 F F F
 C              8.28137958      10.24208247       9.44498188       0.00443697      -0.00038931       0.00613441       0.18131046       1.62942436      -1.48471364      -7.36918427 F F F
 C             17.74002691      20.68768505       1.18138978      -0.00531183      -0.00057592      -0.00123529       0.60308002       0.23497956      -1.41226249      -6.66713417 F F F
 C             20.96430848      11.50826656      22.65825724      -0.00529232      -0.00500530       0.00342775      -1.21917492      -0.83612339      -0.87728318     -10.22959513 F F F
 C              9.37153746       3.79490431      11.81682269       0.00834444      -0.00058356       0.00005947       0.01951426       0.78594164      -1.03800805      -9.99526718 F F F
 C             10.30142968      16.61920298       8.76644068      -0.00830354      -0.00622451       0.00535537      -1.34329072       0.41280643       2.20468187      -9.54722198 F F F
 C              1.51655906      18.72311918       0.72309938      -0.00261780       0.00116473       0.00840770       0.14636108      -1.02836451      -1.51473856      -7.63243296 F F F
 C              8.04970109       6.18847832      17.71879413      -0.00631697       0.00522752      -0.00199304       0.46768452       0.29662337      -0.04263386      -8.81296864 F F F
 C             13.22711256       8.04333302      16.05126332       0.01367237      -0.00471394      -0.00220966       0.86641945       0.47315025      -0.93912020      -9.22529312 F F F
 C              2.19156692       2.98867403      16.17419433       0.00372962      -0.00312108      -0.00924665       0.54675065      -2.57818995      -0.77906444      -8.99653153 F F F
 C              9.04078160      18.84477844       5.74057439      -0.00528157       0.00136515       0.00209307      -1.09091671       0.09654870       0.77473830     -10.09625095 F F F
 C              2.90793236       9.63924225      18.27125310      -0.00257973       0.00333017       0.00645047      -1.25104093       0.41878626       0.72435912      -7.83166088 F F F
 C             15.25502501      13.03055064       6.75308149      -0.00401169      -0.00248224       0.00382912       0.92592550       1.39839483       3.66014315      -6.03954328 F F F
 C              1.88165026      20.19117610      13.64463357       0.00716775       0.00101659       0.00085328       0.57170940      -0.86651602       2.72956726      -9.49013507 F F F
 H             10.28204553       3.10438676       9.67829743      -0.02411377      -0.03642194      -0.02123260      -0.52583265       0.27165329       0.43499329      -3.15022390 F F F
 H             11.95764759      21.29111679       7.80222315      -0.00328733      -0.00956428       0.03203343       0.51587569       0.50662108      -0.63999664      -3.75653845 F F F
 H              1.90141012       7.67070745      18.57725037       0.01274064      -0.02565719       0.00985863       0.22682278       0.64397853       0.36178108      -3.94548551 F F F
 H             11.15867136       8.39022379      17.79136742      -0.02075894      -0.04810779      -0.00198032      -0.26918711       0.58971110      -0.32146274      -4.05536289 F F F