351
Lattice="22.015023969 0.0 0.0 0.0 22.175032875 0.0 0.0 0.0 22.771174595" Properties=species:S:1:pos:R:3:forces:R:3 virial="66.62745060931519 1.985904936762587 -17.340692663526404 1.985904936762587 64.35852889395383 -7.444611001847479 -17.340692663526404 -7.444611001847479 72.7819380560595" config_type=meltquench9 energy=-1274.37277781 stress="-0.005993552692839293 -0.0001786444742010306 0.0015599029267772473 -0.0001786444742010306 -0.0057894491029137855 0.00066968896317077 0.0015599029267772473 0.00066968896317077 -0.006547187035323392" free_energy=-1274.72123683 pbc="T T T"
Ge      21.37433000       5.43009000      19.40127000       0.02906400       0.05631000      -0.09474800
Ge      21.94535000       6.08466000      10.87754000       0.05814300      -0.23774200       0.01927800
Ge       5.53140000       7.55401000      21.46073000       0.00535800       0.14878400      -0.02155000
Ge       3.40302000       9.46985000      11.99437000      -0.15900900       0.14023100       0.07217400
Ge      19.90618000      21.50139000      21.81536000      -0.06760000      -0.11522200      -0.21555000
Ge       2.28834000      20.87412000      22.45490000      -0.00731500       0.19480600      -0.27148200
Ge      18.00199000      20.84813000       6.96612000       0.22457900      -0.15032600      -0.04893100
Ge       9.16684000       2.67480000      10.59231000      -0.07846500       0.11577300       0.01092800
Ge      13.38022000      17.16373000      17.07533000       0.00825600       0.21722600      -0.07692900
Ge       1.01933000      21.95364000       5.19075000       0.08811000      -0.00825100      -0.23475300
Ge      14.41513000       7.38286000      16.43061000       0.03068200       0.05912100      -0.19003800
Ge      13.95187000       0.16209000       2.28446000      -0.06293100       0.02416800       0.00294600
Ge      19.85146000      13.31732000       7.94822000       0.25867100      -0.07445800       0.21562900
Ge      17.63782000       2.33716000      16.55796000      -0.04530000      -0.06438000      -0.15237900
Ge      10.57082000       3.76671000      17.59715000      -0.01512000      -0.13342800      -0.29976000
Ge       3.17156000      12.17225000      16.95430000       0.16975700       0.05333600       0.04783000
Ge      20.32846000      10.08121000       9.56657000       0.13385800       0.08131200      -0.04958100
Ge       7.81185000      10.93590000       4.79153000       0.10217100      -0.17491900       0.07765800
Ge      10.11156000       7.64675000       5.01575000       0.00536700      -0.06759100       0.12319300
Ge       9.55485000       0.26929000       7.84103000       0.08356200       0.06698200      -0.24346500
Ge       4.98547000      15.83664000      18.19298000       0.11714800       0.02313500       0.15567900
Ge      12.73773000       0.86180000      16.09906000       0.10307900       0.07195800      -0.07596400
Ge      20.76478000       3.45193000      12.80247000      -0.12800700       0.12481900      -0.17783300
Ge       3.70972000      18.66715000      10.42061000       0.22769000      -0.02769100      -0.03100200
Ge       5.05066000       8.66832000      15.91098000       0.35584500      -0.07156600      -0.18725800
Ge       9.00689000      16.28169000       6.00252000      -0.07970500       0.04044000       0.18339000
Ge      19.71818000       9.41098000       1.73708000       0.34170200       0.17829000      -0.07015000
Ge       4.66007000       5.71349000       8.19068000      -0.03379500      -0.07660900       0.21473600
Ge      14.63733000      20.53771000       4.42030000      -0.21860700       0.07654000      -0.09664400
Ge       2.34794000      14.88303000      12.47450000      -0.02634600       0.14778600      -0.05061100
Ge      20.55870000       7.63876000       4.86422000       0.09784800      -0.03989200      -0.00359000
Ge       1.18983000      10.68897000      15.60031000       0.11523000       0.14218500       0.15164500
Ge       8.40663000      12.39395000      11.53033000       0.02938700      -0.09695500      -0.04336900
Ge       2.78278000       4.71861000      22.21537000       0.13287100      -0.23426700       0.00929500
Ge       1.33213000      19.43181000      19.30057000       0.02363900       0.18838700       0.02660600
Ge      11.29064000      10.79382000       2.91565000      -0.07526800       0.06919500      -0.05999200
Ge      14.69749000       3.39235000       4.93728000       0.21741200      -0.05458200       0.01828800
Ge      21.27382000      17.02571000      17.64126000      -0.21221500       0.10497000      -0.23112100
Ge       5.44800000       0.52369000      11.00432000      -0.15626200      -0.03163800      -0.04660400
Ge      13.01993000      18.40939000       1.79782000       0.03227600      -0.01348500       0.21284300
Ge      16.25391000      10.05654000       9.39320000      -0.03307400       0.18443100       0.06943200
Ge      19.10145000      14.14187000      17.10119000      -0.02469700      -0.23818900      -0.04740800
Ge      17.96165000      14.93975000      11.49878000      -0.11243400       0.07472500      -0.22036100
Ge       8.87557000       1.03093000       3.85058000      -0.15640100      -0.12220500       0.08106300
Ge       0.70347000       6.18270000       2.03246000       0.04575300       0.07961400       0.01536700
Ge      18.00063000       5.34672000      18.78806000       0.08246300       0.15352600      -0.17104800
Ge       5.84026000       9.02607000       8.66021000       0.11224300      -0.08140900       0.01023600
Ge      17.33077000       1.29870000       6.15620000      -0.07736300       0.43996900      -0.06512500
Ge       8.69868000      16.16078000      19.80512000      -0.14133400      -0.03287000       0.03905900
Ge       0.08936000      18.52159000       1.76512000      -0.02625500       0.06406300      -0.06459900
Ge       0.66998000       8.64688000      17.52781000      -0.10058400      -0.04718000      -0.09712100
Ge       6.83089000      10.01054000      19.06449000      -0.12681900       0.09214100      -0.08903400
Ge      10.29808000       6.05313000       7.28729000       0.08931000       0.00659400       0.01363700
Ge      13.31633000      15.24666000      13.50220000       0.21234600      -0.13661000       0.04516000
Ge       9.84761000      16.29594000      12.65526000       0.00436300      -0.07044900       0.03652800
Ge       9.83535000      13.12176000       7.17500000       0.28103200      -0.09235500       0.11316100
Ge       5.70593000      22.06318000      22.15307000      -0.13430900      -0.37566500       0.12217200
Ge      17.24626000      17.65024000       1.51947000      -0.01110700       0.26739500      -0.27886900
Ge      17.04032000       1.63845000      20.44810000       0.02928400      -0.23289400       0.03381500
Ge      18.34186000       8.16408000       6.64732000       0.13661900       0.01540000       0.04411900
Ge      10.87655000      16.58363000       9.09227000       0.10750700      -0.12286200      -0.00593100
Ge       1.90074000       3.03160000       9.77144000       0.17839400      -0.16447100      -0.09684700
Ge       1.19918000      12.24156000      10.18976000      -0.39628600      -0.26395600      -0.23939900
Ge      12.31493000      20.05117000       7.58715000      -0.13179800       0.08218500       0.04102300
Ge      19.81928000      20.56132000      13.44146000       0.01237200       0.07531100      -0.14041300
Ge      19.11389000      16.89160000       6.93611000      -0.14976100       0.09510600       0.25899800
Ge       2.42472000      10.90117000      20.82544000       0.16671600      -0.04605300      -0.03232400
Ge      10.90174000      19.83639000      15.24765000       0.06939900      -0.01803300       0.07016400
Ge      16.57809000      16.62668000      14.12185000       0.09278300      -0.07946600       0.03607300
Ge       4.12994000      17.78736000       0.38610000       0.15762700      -0.14482400      -0.13464500
Ge       7.08715000       1.61574000      20.09398000       0.26522300       0.23731100      -0.03369900
Ge       9.30658000       0.21450000      20.97033000       0.17204500      -0.02488000       0.12728800
Ge      18.17597000      16.61616000      19.64174000       0.02840500       0.30492700      -0.06409500
Ge       6.90387000      20.50788000       5.85204000      -0.26507800      -0.04541900      -0.23845000
Ge       7.47269000       2.68551000      22.70835000      -0.01954500       0.08158800      -0.19117800
Ge      21.25009000       0.38144000      10.30733000       0.04216100      -0.10306000      -0.17366200
Ge      20.18688000      16.58909000      14.04105000       0.06718500       0.14658300       0.29427800
Ge      10.59669000      21.23005000      18.59737000       0.00945200      -0.06652000       0.10845600
Sb      17.79758000       3.50290000       9.98988000       0.11004100       0.06168200      -0.31881300
Sb       7.88748000      17.11042000      15.88951000       0.04251900       0.24253600      -0.21172800
Sb       3.03168000      14.63900000       3.02824000       0.01980700      -0.00140900      -0.13546700
Sb       4.26556000       2.08689000      19.66336000      -0.29580600       0.02520000      -0.10786100
Sb      11.06938000       3.86031000      21.11877000      -0.11448500       0.00336400       0.21052400
Sb      10.52027000       4.53384000       1.93660000       0.13983400       0.10370800       0.20081100
Sb      16.76132000      16.47974000       4.97511000      -0.01260000      -0.10754200       0.05184100
Sb      16.15266000       3.50772000       1.09973000      -0.04390400      -0.00330300       0.48680100
Sb      17.47301000       0.11061000      12.55096000       0.02540900      -0.21929000      -0.23116700
Sb       0.90490000      19.41353000       8.66530000      -0.10918300       0.24584600      -0.08347400
Sb      13.41503000      10.07945000       1.18269000       0.16432600       0.15184200       0.01910100
Sb      16.85835000      19.38894000      17.31009000       0.07425900       0.15626700      -0.15062900
Sb      14.69854000      20.82972000      21.10374000       0.04341600      -0.00065900      -0.01152000
Sb      19.10512000       9.25270000      18.62020000       0.16678200      -0.14353600       0.22933000
Sb       3.52689000       1.96943000      14.57511000      -0.05140800      -0.14340300       0.22415800
Sb      15.08275000      13.13028000       3.06143000       0.17795000      -0.17351300       0.12379700
Sb      11.01470000       9.09627000      12.95274000      -0.04999700       0.30196800       0.19055300
Sb       6.71337000      19.58057000      19.12952000      -0.08770600      -0.16918300       0.06233700
Sb      14.31589000       6.92748000      21.24479000      -0.16665700      -0.16752800       0.02814600
Sb       7.83925000       6.78092000      10.76606000       0.16112300       0.17029200      -0.18180200
Sb      14.21459000       6.64134000      10.95697000      -0.09796100       0.08853700       0.23119400
Sb      17.25376000      10.47853000       1.17681000      -0.16707600      -0.20155900       0.05289200
Sb       8.18854000       8.40972000       1.64522000      -0.07200000      -0.03481700      -0.07539500
Sb       1.75221000       8.73439000       8.17730000      -0.35826600      -0.12977800      -0.02196000
Sb      18.65375000      11.88383000       4.65815000      -0.11618400       0.13002300      -0.02917900
Sb       3.47671000      11.54769000       6.22389000       0.08908100       0.05344600       0.03684600
Sb      21.09183000      12.92373000      13.69109000       0.01254800       0.23893700      -0.11805800
Sb       1.38149000       4.74131000       5.66043000      -0.14198300       0.28551500       0.15550300
Sb      13.56231000      13.34906000       8.67129000       0.13945600      -0.03299200       0.03277600
Sb       6.01678000      21.02686000      15.33497000       0.06781800       0.15935600       0.12879400
Sb      19.60705000      21.38308000       2.66111000      -0.23698100       0.06034300      -0.06542000
Sb       6.51917000      14.52682000       1.39591000       0.01265900      -0.22003200      -0.27777300
Sb      14.26408000       3.78692000      18.30550000       0.14187100       0.15294400       0.06947600
Sb      14.92331000       0.54942000       9.52034000       0.11622900       0.00555100       0.26699600
Sb       0.69767000      16.92635000       5.51838000       0.30955200      -0.08521200       0.01670900
Sb      12.44270000       9.46258000      19.00454000      -0.14936200       0.07065200      -0.37507500
Sb       4.35809000      17.44239000       7.29999000       0.12143500      -0.03725200       0.07139800
Sb      12.48707000       3.82548000       9.18867000      -0.02044100       0.24218700       0.10501000
Sb      10.81935000      13.56271000      16.87550000      -0.07212900       0.08604000       0.15888800
Sb       9.30658000      11.10430000      21.47220000      -0.20704400       0.14413900      -0.35468200
Sb      10.39999000       4.60106000      14.03408000      -0.40955500       0.01026400       0.15743000
Sb       9.15543000       9.12754000      15.27573000       0.23438100      -0.02326400      -0.03433300
Sb      18.17887000       6.73025000      10.59523000      -0.00865000       0.17568700       0.04171400
Sb      14.35894000      15.29770000      20.56963000       0.20077200       0.09410400      -0.19006300
Sb       3.45625000       2.85307000       2.89446000       0.26722000      -0.25942700       0.01390600
Sb       7.09799000       5.50463000      15.44802000       0.23263300      -0.29730300      -0.12467000
Sb       0.65305000       5.77578000      15.04700000      -0.12513200      -0.13667500       0.03774500
Sb      20.93829000       9.68204000      22.01357000      -0.21417200      -0.26414000      -0.01387600
Sb      19.43784000      13.79813000      22.14834000       0.03483400      -0.07734700       0.17478800
Sb       2.41640000      21.42137000      12.88340000      -0.10826700       0.24023800       0.11933900
Sb       1.14020000      18.78988000      12.27285000      -0.34054400      -0.21757200       0.29465800
Sb       0.04351000       1.91083000       0.37402000       0.06620400       0.14017100      -0.30522300
Sb       2.15084000      10.56234000       1.61098000      -0.21658400      -0.11808300      -0.03751400
Sb       9.41856000      17.29244000      22.71567000       0.08648500      -0.31917800       0.26529600
Sb       5.04409000      13.41304000      10.24206000      -0.10717500       0.12725100       0.00154700
Sb       0.57988000       1.50737000      16.21089000       0.14698200      -0.04698100       0.06419900
Sb       6.93537000      13.42912000      14.65009000       0.10178700      -0.41992200      -0.07664700
Sb       4.22902000       1.67007000       6.95671000      -0.21024200      -0.04356200      -0.22983600
Sb      20.57710000       0.09766000      17.96857000      -0.42058800      -0.15768500      -0.01889800
Sb       1.68234000      16.15679000      15.67074000      -0.09371500       0.15712100       0.07815500
Sb       3.04879000       5.21457000      16.95543000      -0.14174100      -0.11168300       0.00393600
Sb       6.76525000       4.78030000       3.19821000      -0.04792200       0.06374800       0.03738900
Sb      10.44245000      19.78073000       4.22087000      -0.11073900      -0.00680000      -0.11601100
Sb      13.25978000      21.66532000      12.55492000       0.07514100      -0.05152800      -0.06850000
Sb      15.30065000      17.79086000       7.44696000      -0.04283800       0.17296500      -0.05183900
Sb      15.72336000      11.06991000      12.99208000       0.21160100       0.23334200      -0.21074200
Sb      15.06525000       7.38250000       2.53933000       0.00899500      -0.07528300      -0.16563900
Sb      19.22945000      16.35875000       3.27138000       0.20004000      -0.37925600      -0.16977600
Sb      19.55242000       3.64968000       3.53217000      -0.01881900      -0.16707900       0.13294100
Sb       5.88432000      14.34803000       4.36075000       0.16172000       0.14614200      -0.06424400
Sb       0.24593000      13.58530000       2.75819000      -0.38408500      -0.00610900      -0.44058100
Sb      12.47101000       9.31314000       8.04821000      -0.00431400       0.24551600      -0.00018200
Sb      15.90690000      11.55151000      18.13968000       0.15568900      -0.39105100       0.22877300
Sb      12.21796000      14.85052000       1.12438000      -0.23345100       0.03405300       0.05889600
Sb       5.68225000      13.24859000       7.32772000       0.10953100       0.12966000       0.07852200
Sb      13.57615000      12.31777000      16.33050000      -0.21126700       0.20903100      -0.16106800
Sb       7.45870000      19.34224000       9.75794000      -0.21488000      -0.01733900      -0.01965300
Sb       4.51638000      11.37341000      22.67646000      -0.26023800       0.17760800       0.19300100
Te       7.61767000      11.16371000       7.68234000      -0.00363300      -0.12324900      -0.13444200
Te       7.35501000       7.96718000       4.43578000       0.17229700       0.13718600       0.06253300
Te      14.94717000       3.31782000      10.95787000      -0.13200800       0.01148200       0.10248100
Te       4.91718000       7.16252000      10.76663000      -0.30519900      -0.03549000      -0.10733600
Te       9.64256000       3.37454000       8.02801000       0.08114300      -0.30451200       0.16728200
Te      16.32047000       4.99661000      16.54248000       0.07228400      -0.08163100       0.19523100
Te      18.50305000      21.70363000      15.87520000       0.14149700      -0.01579400       0.13297500
Te      18.26641000      13.92529000      14.17766000      -0.10028000      -0.11504900       0.08608600
Te       9.10147000      19.55923000       7.33458000       0.18871000      -0.08630900       0.27978800
Te      18.03214000       0.59524000       9.49362000      -0.11991800      -0.03369200       0.19220300
Te       2.30161000      19.42964000       5.93477000      -0.22716600       0.10032000      -0.06348700
Te       7.45307000       4.17443000      12.02135000       0.02007200      -0.07492100       0.11095600
Te       6.84519000      17.29304000       1.58263000       0.00790700       0.05506900       0.12632500
Te       3.93291000      14.46976000       0.09168000       0.09675300       0.19153600       0.12362900
Te      17.79792000      15.06440000       8.54856000      -0.06623300       0.01892200       0.03694100
Te      18.40113000      17.03846000      16.62071000       0.33277400       0.02918900      -0.19378600
Te      21.69612000      18.92129000      14.81383000       0.11905900      -0.10660100       0.14200000
Te      12.50940000       9.57525000      15.95560000       0.01349100      -0.19155200       0.15150800
Te       9.26122000       4.04108000       4.48496000       0.08490300       0.13999600      -0.12502000
Te      20.39890000       7.21503000      16.92528000      -0.00045900       0.08609000       0.00245800
Te      12.77101000       3.71540000      15.62150000       0.00132100       0.00566500      -0.10890100
Te      15.16784000      18.82307000      15.01782000      -0.01207900       0.21295300       0.07000200
Te      21.57504000       0.61673000      13.14006000      -0.04932100      -0.13910200       0.15442300
Te       5.00830000       2.82600000      16.96271000       0.42515900       0.21635400       0.02949500
Te      19.86278000       6.80116000       2.31303000      -0.13511100      -0.00126000       0.12217000
Te      15.65100000      20.27683000      11.29900000      -0.18990100       0.21161000      -0.04954600
Te       3.18456000      21.51029000      16.10507000      -0.12568800       0.02768400      -0.28453200
Te      16.26979000       6.30399000      13.02534000      -0.01028000       0.00462100       0.11979100
Te       1.28442000       2.05816000       7.09582000       0.14852000      -0.12493000       0.20748100
Te      16.20707000      13.77615000       5.78540000       0.06301100      -0.23737600       0.10733900
Te       3.42604000      17.39184000      13.39721000       0.40722400      -0.04539600      -0.10079300
Te      15.07313000      17.92698000      19.30111000      -0.01601900      -0.09537100       0.07937600
Te       3.63793000       5.67061000       1.88155000       0.11136400       0.01278200      -0.00002900
Te      11.50455000      20.71840000       1.68110000       0.09550500       0.01165600       0.09045400
Te      11.25986000      11.73151000       9.37510000       0.14818700       0.04176400       0.17084200
Te       6.18848000       1.36242000      13.58522000       0.08097000      -0.17866400      -0.00475600
Te      16.19092000       7.36167000       8.33612000      -0.29135600      -0.05695600       0.08190400
Te      15.44440000      19.79344000       0.90225000       0.06704000       0.15536300       0.01223900
Te      10.96984000      16.13495000      15.21030000      -0.13321400       0.06869500       0.01507200
Te      18.99281000       1.40533000       0.66891000       0.00309000      -0.06410100       0.13826400
Te      13.14477000      12.47837000      13.38188000      -0.06907600       0.01894900       0.01094300
Te      11.51231000       2.77476000      11.89940000       0.17188000      -0.01984300      -0.11197100
Te      17.84937000      18.67329000       8.66809000       0.13570900       0.09070600       0.08703300
Te      20.08570000       6.31112000      12.92203000       0.23527500      -0.01438600      -0.01163600
Te       5.21170000       4.67326000      20.81184000      -0.06977200      -0.16470300      -0.12108600
Te      18.39986000      11.20135000      16.41088000       0.06151400       0.24664300       0.07878400
Te       5.91922000       6.78817000      17.72190000      -0.15028700       0.16449300       0.11270800
Te       3.68215000       0.16656000       4.33382000       0.08406600       0.02351000       0.16005100
Te       7.25750000      15.52527000      12.66700000       0.11294600       0.29038000       0.03979300
Te      20.41446000       4.95960000       5.94360000      -0.03630100       0.09994800       0.25271600
Te      12.63116000      18.89321000      13.22186000      -0.10550400      -0.06766000       0.20911600
Te       8.88069000       2.58160000      15.79665000      -0.04173600       0.31019600      -0.12852700
Te       5.13226000       8.76054000       1.16480000       0.06692100       0.03128000      -0.18039100
Te       1.45674000       3.11387000      18.49725000      -0.16980700      -0.03264700       0.15874800
Te      18.46144000      10.83344000       7.62960000      -0.22863300      -0.07714300      -0.06282800
Te       8.54172000       4.02267000      19.68913000      -0.22258600       0.05587900       0.13573500
Te       4.80216000       3.22581000       9.52649000      -0.07097600       0.05115100       0.17204300
Te       9.98486000       1.66569000       0.51291000      -0.17750200       0.07482400      -0.09420300
Te      20.64396000      19.78447000      10.71855000      -0.20170300       0.07593800       0.05152300
Te      16.44065000       8.48588000      14.88977000      -0.00216000      -0.25332500      -0.13782400
Te      20.56867000      19.27357000      18.96378000       0.18419000      -0.01484100       0.11474600
Te      18.19558000      11.26421000      21.20079000       0.21609800      -0.00769000      -0.08765200
Te       4.49995000      20.41531000       1.31094000       0.01278500       0.00177600       0.13792200
Te       4.18162000       9.10203000      19.52794000       0.39025000       0.06126800       0.12388400
Te      17.20758000      19.58586000       4.32350000       0.00872900       0.23450600       0.06189500
Te       7.51799000       6.61632000       7.86404000       0.11728400       0.22565000       0.12792100
Te       7.80858000      20.55453000       3.16669000       0.05113200       0.11769300       0.14654200
Te      20.54102000      15.14757000      19.58441000      -0.09361600      -0.24646100       0.01714000
Te      17.18037000       3.95604000       6.97119000      -0.03803600      -0.47234700       0.00674500
Te      21.67729000      10.62486000      19.10769000      -0.24645800       0.08471500       0.00145400
Te       4.02247000      14.42829000      15.65695000      -0.04157100       0.01749000      -0.02018500
Te       7.49626000       0.00219000      17.70542000       0.11138000      -0.13389700      -0.16968900
Te       2.03157000      16.79134000      18.52104000       0.08825500      -0.03278900      -0.01515000
Te       0.27076000       0.29710000      20.52839000       0.03623100       0.05999600       0.10832300
Te      13.11836000      18.35820000       5.13704000       0.12339000       0.05511100      -0.11264700
Te      13.41036000      12.07413000      19.62158000      -0.02375100      -0.06525000       0.05805200
Te      17.15283000      15.83202000      22.19555000      -0.12027000      -0.16791400       0.04603400
Te      10.68697000      10.27599000       5.59598000      -0.14190600       0.00846900       0.03103800
Te       9.76067000       6.54197000      16.50064000       0.14331600      -0.04404100      -0.13834200
Te      12.89706000      20.42880000      17.37307000       0.02485300      -0.24474600       0.00202000
Te      15.50638000       8.43318000      18.79640000       0.20724300       0.36562400      -0.19851000
Te       7.34197000       1.06104000       6.21715000       0.16867400      -0.06445200      -0.07564800
Te       5.66111000      16.68624000       9.84021000       0.00314900       0.33162000       0.02704500
Te       9.62137000      14.36926000      22.58822000       0.00897400       0.02155300      -0.02223200
Te      12.51208000      17.33979000      22.04870000      -0.03668900       0.02856000      -0.31653100
Te      12.19937000       5.97963000      19.29662000      -0.11396300       0.14074200       0.06932900
Te       1.59500000       4.41957000      12.59456000      -0.07924100       0.01596400      -0.07921300
Te      10.81880000       0.22327000      14.24464000       0.00028200       0.02839100       0.12075600
Te      13.95578000       9.53112000      11.16500000       0.14993200       0.19585500      -0.15346200
Te      11.99608000      15.08555000       6.89018000      -0.14884600       0.15871600      -0.22467600
Te       2.54265000       8.43028000      14.73905000       0.13816600      -0.25790000      -0.20144300
Te      13.47054000       7.94667000       5.48922000       0.06133600      -0.25162600      -0.01393800
Te       4.09966000      21.02909000      20.06923000      -0.14347000       0.22805500       0.14285700
Te       9.30889000      18.36460000      18.14864000       0.11104100       0.23374800       0.02448700
Te      17.71139000      21.08396000      20.19594000       0.04157500       0.25594600       0.07535500
Te      16.14302000      12.74854000      10.65284000      -0.01473600      -0.43978000      -0.02565300
Te      16.79379000       7.64153000       0.22062000       0.03710700       0.19503200       0.14294700
Te      20.33466000       7.32998000       8.56142000       0.02724400      -0.10559000      -0.14049100
Te       3.70058000      10.88057000       9.45598000       0.18720400      -0.05812900       0.28511300
Te      21.94973000      13.84350000      16.37270000      -0.04827900      -0.33466600       0.03793400
Te      11.55214000      20.61766000      21.13348000       0.05197500      -0.19771800      -0.17196700
Te       0.31547000      11.23431000       7.59562000      -0.14067600       0.18746600      -0.16243900
Te       9.83992000      10.90838000      18.51049000       0.00177800       0.08955900       0.12405400
Te      11.82002000       8.93182000      21.93804000       0.08670100      -0.15826200       0.21308900
Te      11.85806000       1.80776000      19.23954000       0.23796300      -0.06727500      -0.30292900
Te      16.77915000       9.62137000       4.15310000      -0.15121300       0.06730000       0.04744100
Te       7.95792000       5.39632000       0.52424000      -0.02399200      -0.19767800       0.21747600
Te       2.82438000      14.61874000       6.09275000      -0.12507700       0.14450600       0.16046200
Te      10.09063000      18.63820000      11.26758000      -0.00428800       0.03188200      -0.16997500
Te      15.01050000      20.83917000       7.19131000       0.02990700      -0.27370700      -0.16423600
Te      15.05241000       0.58081000      14.53153000       0.02507600       0.02473600       0.07410900
Te       1.83478000       5.68439000       8.51548000      -0.08820900      -0.12883800      -0.08707400
Te      20.97958000      21.10390000       7.33509000      -0.26480400       0.02190500       0.06281700
Te       7.61325000      14.59986000      17.70623000      -0.04403000      -0.17936500       0.01322600
Te      13.59219000       1.94010000       7.18306000      -0.12431100      -0.03862900      -0.24294300
Te      12.16313000      13.27294000       3.71038000      -0.00181400      -0.05815800       0.00244200
Te       8.20926000       8.37858000      21.11914000       0.20036300       0.00867000       0.00670200
Te       5.26457000      18.28175000      16.71971000       0.07735000      -0.15076200       0.08076300
Te      16.78456000      14.25273000      18.95025000      -0.27822700      -0.16380600       0.04814400
Te       8.75465000      11.28157000       1.84964000       0.03692600       0.00358000       0.00876500
Te       4.23812000       8.46899000       6.49990000       0.14351800       0.07839800       0.01309200
Te       8.83149000      13.88075000       4.51486000      -0.30215400      -0.01097400      -0.30174600
Te      11.04055000       7.52741000       2.43849000      -0.04963000      -0.05613900      -0.00410600
Te      13.22533000       5.31635000       6.43623000      -0.23773400      -0.02080000       0.05600600